# vtk DataFile Version 2.0
DummyMesh output
ASCII
DATASET UNSTRUCTURED_GRID
POINTS 3520 double
-1.74608 -0.0338532 0.217955
-1.74608 0.0338532 0.217955
-1.74615 -2.15692e-11 0.214156
-1.2586 1.21073 0.217955
-1.21073 1.2586 0.217955
-1.23471 1.23471 0.214156
-1.21073 -1.2586 0.217955
-1.2586 -1.21073 0.217955
-1.23471 -1.23471 0.214156
-0.0338532 1.74608 0.217955
0.0338532 1.74608 0.217955
-2.15693e-11 1.74615 0.214156
0.0338532 -1.74608 0.217955
-0.0338532 -1.74608 0.217955
2.15694e-11 -1.74615 0.214156
1.21073 1.2586 0.217955
1.2586 1.21073 0.217955
1.23471 1.23471 0.214156
1.2586 -1.21073 0.217955
1.21073 -1.2586 0.217955
1.23471 -1.23471 0.214156
1.74608 0.0338532 0.217955
1.74608 -0.0338532 0.217955
1.74615 2.15694e-11 0.214156
-1.74555 0.0949054 0.247221
-1.74588 0.0660219 0.229162
-1.3014 -1.16719 0.247221
-1.28121 -1.18784 0.229162
-1.16719 1.3014 0.247221
-1.18784 1.28121 0.229162
-0.0949054 -1.74555 0.247221
-0.0660219 -1.74588 0.229162
0.0949054 1.74555 0.247221
0.0660219 1.74588 0.229162
1.16719 -1.3014 0.247221
1.18784 -1.28121 0.229162
1.3014 1.16719 0.247221
1.28121 1.18784 0.229162
1.74555 -0.0949054 0.247221
1.74588 -0.0660219 0.229162
-1.74555 -0.0949054 0.247221
-1.74588 -0.0660219 0.229162
-1.3014 1.16719 0.247221
-1.28121 1.18784 0.229162
-1.16719 -1.3014 0.247221
-1.18784 -1.28121 0.229162
-0.0949054 1.74555 0.247221
-0.0660219 1.74588 0.229162
0.0949054 -1.74555 0.247221
0.0660219 -1.74588 0.229162
1.16719 1.3014 0.247221
1.18784 1.28121 0.229162
1.3014 -1.16719 0.247221
1.28121 -1.18784 0.229162
1.74555 0.0949054 0.247221
1.74588 0.0660219 0.229162
-1.74461 0.137303 0.3
-1.74512 0.119067 0.271231
-1.33071 -1.13653 0.3
-1.31818 -1.1498 0.271231
-1.13653 1.33071 0.3
-1.1498 1.31818 0.271231
-0.137303 -1.74461 0.3
-0.119067 -1.74512 0.271231
0.137303 1.74461 0.3
0.119067 1.74512 0.271231
1.13653 -1.33071 0.3
1.1498 -1.31818 0.271231
1.33071 1.13653 0.3
1.31818 1.1498 0.271231
1.74461 -0.137303 0.3
1.74512 -0.119067 0.271231
-1.74461 -0.137303 0.3
-1.74512 -0.119067 0.271231
-1.33071 1.13653 0.3
-1.31818 1.1498 0.271231
-1.13653 -1.33071 0.3
-1.1498 -1.31818 0.271231
-0.137303 1.74461 0.3
-0.119067 1.74512 0.271231
0.137303 -1.74461 0.3
0.119067 -1.74512 0.271231
1.13653 1.33071 0.3
1.1498 1.31818 0.271231
1.33071 -1.13653 0.3
1.31818 -1.1498 0.271231
1.74461 0.137303 0.3
1.74512 0.119067 0.271231
-1.74165 -0.170766 0.373323
-1.74321 -0.154042 0.336662
-1.35228 -1.11078 0.373323
-1.34156 -1.12371 0.336662
-1.11078 1.35228 0.373323
-1.12371 1.34156 0.336662
-0.170766 1.74165 0.373323
-0.154042 1.74321 0.336662
0.170766 -1.74165 0.373323
0.154042 -1.74321 0.336662
1.11078 -1.35228 0.373323
1.12371 -1.34156 0.336662
1.35228 1.11078 0.373323
1.34156 1.12371 0.336662
1.74165 0.170766 0.373323
1.74321 0.154042 0.336662
-1.74165 0.170766 0.373323
-1.74321 0.154042 0.336662
-0.170766 -1.74165 0.373323
-0.154042 -1.74321 0.336662
0.170766 1.74165 0.373323
0.154042 1.74321 0.336662
1.74165 -0.170766 0.373323
1.74321 -0.154042 0.336662
-1.35228 1.11078 0.373323
-1.34156 1.12371 0.336662
-1.11078 -1.35228 0.373323
-1.12371 -1.34156 0.336662
1.11078 1.35228 0.373323
1.12371 1.34156 0.336662
1.35228 -1.11078 0.373323
1.34156 -1.12371 0.336662
-1.39028 1.06284 0.506848
-1.37149 1.08698 0.440085
-1.06284 -1.39028 0.506848
-1.08698 -1.37149 0.440085
1.06284 1.39028 0.506848
1.08698 1.37149 0.440085
1.39028 -1.06284 0.506848
1.37149 -1.08698 0.440085
1.39028 1.06284 0.506848
1.37149 1.08698 0.440085
-1.73462 0.231531 0.506848
-1.7384 0.201179 0.440085
-0.231531 -1.73462 0.506848
-0.201179 -1.7384 0.440085
0.231531 1.73462 0.506848
0.201179 1.7384 0.440085
1.73462 -0.231531 0.506848
1.7384 -0.201179 0.440085
-1.73462 -0.231531 0.506848
-1.7384 -0.201179 0.440085
-1.39028 -1.06284 0.506848
-1.37149 -1.08698 0.440085
-1.06284 1.39028 0.506848
-1.08698 1.37149 0.440085
-0.231531 1.73462 0.506848
-0.201179 1.7384 0.440085
0.231531 -1.73462 0.506848
0.201179 -1.7384 0.440085
1.06284 -1.39028 0.506848
1.08698 -1.37149 0.440085
1.73462 0.231531 0.506848
1.7384 0.201179 0.440085
1.45507 0.972248 0.75
1.42339 1.01806 0.628424
-1.71637 -0.341408 0.75
-1.72637 -0.286615 0.628424
-1.71637 0.341408 0.75
-1.72637 0.286615 0.628424
-1.45507 -0.972248 0.75
-1.42339 -1.01806 0.628424
-1.45507 0.972248 0.75
-1.42339 1.01806 0.628424
-0.972248 -1.45507 0.75
-1.01806 -1.42339 0.628424
-0.972248 1.45507 0.75
-1.01806 1.42339 0.628424
-0.341408 -1.71637 0.75
-0.286615 -1.72637 0.628424
-0.341408 1.71637 0.75
-0.286615 1.72637 0.628424
0.341408 -1.71637 0.75
0.286615 -1.72637 0.628424
0.341408 1.71637 0.75
0.286615 1.72637 0.628424
0.972248 -1.45507 0.75
1.01806 -1.42339 0.628424
0.972248 1.45507 0.75
1.01806 1.42339 0.628424
1.45507 -0.972248 0.75
1.42339 -1.01806 0.628424
1.71637 -0.341408 0.75
1.72637 -0.286615 0.628424
1.71637 0.341408 0.75
1.72637 0.286615 0.628424
-1.69118 -0.449902 0.993152
-1.70464 -0.395856 0.871576
-1.69118 0.449902 0.993152
-1.70464 0.395856 0.871576
-1.51397 0.877716 0.993152
-1.48527 0.92545 0.871576
-0.877716 -1.51397 0.993152
-0.92545 -1.48527 0.871576
-0.449902 -1.69118 0.993152
-0.395856 -1.70464 0.871576
-0.449902 1.69118 0.993152
-0.395856 1.70464 0.871576
0.449902 -1.69118 0.993152
0.395856 -1.70464 0.871576
0.449902 1.69118 0.993152
0.395856 1.70464 0.871576
0.877716 1.51397 0.993152
0.92545 1.48527 0.871576
1.51397 -0.877716 0.993152
1.48527 -0.92545 0.871576
1.69118 -0.449902 0.993152
1.70464 -0.395856 0.871576
1.69118 0.449902 0.993152
1.70464 0.395856 0.871576
-1.51397 -0.877716 0.993152
-1.48527 -0.92545 0.871576
-0.877716 1.51397 0.993152
-0.92545 1.48527 0.871576
0.877716 -1.51397 0.993152
0.92545 -1.48527 0.871576
1.51397 0.877716 0.993152
1.48527 0.92545 0.871576
-1.67442 -0.508733 1.12668
-1.68306 -0.479391 1.05991
-1.67442 0.508733 1.12668
-1.68306 0.479391 1.05991
-1.54372 -0.824267 1.12668
-1.52908 -0.851121 1.05991
-0.824267 1.54372 1.12668
-0.851121 1.52908 1.05991
-0.508733 1.67442 1.12668
-0.479391 1.68306 1.05991
-0.508733 -1.67442 1.12668
-0.479391 -1.68306 1.05991
0.508733 1.67442 1.12668
0.479391 1.68306 1.05991
0.508733 -1.67442 1.12668
0.479391 -1.68306 1.05991
0.824267 -1.54372 1.12668
0.851121 -1.52908 1.05991
1.54372 0.824267 1.12668
1.52908 0.851121 1.05991
1.67442 -0.508733 1.12668
1.68306 -0.479391 1.05991
1.67442 0.508733 1.12668
1.68306 0.479391 1.05991
-1.54372 0.824267 1.12668
-1.52908 0.851121 1.05991
-0.824267 -1.54372 1.12668
-0.851121 -1.52908 1.05991
0.824267 1.54372 1.12668
0.851121 1.52908 1.05991
1.54372 -0.824267 1.12668
1.52908 -0.851121 1.05991
-1.66435 -0.54078 1.2
-1.66946 -0.524781 1.16334
-1.66435 0.54078 1.2
-1.66946 0.524781 1.16334
-1.55926 -0.794483 1.2
-1.55156 -0.809412 1.16334
-1.55926 0.794483 1.2
-1.55156 0.809412 1.16334
-0.794483 1.55926 1.2
-0.809412 1.55156 1.16334
-0.794483 -1.55926 1.2
-0.809412 -1.55156 1.16334
-0.54078 -1.66435 1.2
-0.524781 -1.66946 1.16334
-0.54078 1.66435 1.2
-0.524781 1.66946 1.16334
0.54078 -1.66435 1.2
0.524781 -1.66946 1.16334
0.54078 1.66435 1.2
0.524781 1.66946 1.16334
0.794483 1.55926 1.2
0.809412 1.55156 1.16334
0.794483 -1.55926 1.2
0.809412 -1.55156 1.16334
1.55926 -0.794483 1.2
1.55156 -0.809412 1.16334
1.55926 0.794483 1.2
1.55156 0.809412 1.16334
1.66435 -0.54078 1.2
1.66946 -0.524781 1.16334
nan nan nan
1.66946 0.524781 1.16334
-1.649 0.580314 1.25278
-1.65785 0.557826 1.22877
-1.57636 -0.755676 1.25278
-1.56672 -0.777833 1.22877
-0.755676 1.57636 1.25278
-0.777833 1.56672 1.22877
-0.580314 -1.649 1.25278
-0.557826 -1.65785 1.22877
0.580314 1.649 1.25278
0.557826 1.65785 1.22877
0.755676 -1.57636 1.25278
0.777833 -1.56672 1.22877
1.57636 0.755676 1.25278
1.56672 0.777833 1.22877
1.649 -0.580314 1.25278
1.65785 -0.557826 1.22877
-1.649 -0.580314 1.25278
-1.65785 -0.557826 1.22877
-1.57636 0.755676 1.25278
-1.56672 0.777833 1.22877
-0.755676 -1.57636 1.25278
-0.777833 -1.56672 1.22877
-0.580314 1.649 1.25278
-0.557826 1.65785 1.22877
0.580314 -1.649 1.25278
0.557826 -1.65785 1.22877
0.755676 1.57636 1.25278
0.777833 1.56672 1.22877
1.57636 -0.755676 1.25278
1.56672 -0.777833 1.22877
1.649 0.580314 1.25278
1.65785 0.557826 1.22877
-1.62612 0.63692 1.28205
-1.63825 0.607123 1.27084
-1.60021 -0.699472 1.28205
-1.58772 -0.729115 1.27084
-0.699472 1.60021 1.28205
-0.729115 1.58772 1.27084
-0.63692 -1.62612 1.28205
-0.607123 -1.63825 1.27084
0.63692 1.62612 1.28205
0.607123 1.63825 1.27084
0.699472 -1.60021 1.28205
0.729115 -1.58772 1.27084
1.60021 0.699472 1.28205
1.58772 0.729115 1.27084
1.62612 -0.63692 1.28205
1.63825 -0.607123 1.27084
-1.62612 -0.63692 1.28205
-1.63825 -0.607123 1.27084
-1.60021 0.699472 1.28205
-1.58772 0.729115 1.27084
-0.699472 -1.60021 1.28205
-0.729115 -1.58772 1.27084
-0.63692 1.62612 1.28205
-0.607123 1.63825 1.27084
0.63692 -1.62612 1.28205
0.607123 -1.63825 1.27084
0.699472 1.60021 1.28205
0.729115 1.58772 1.27084
1.60021 -0.699472 1.28205
1.58772 -0.729115 1.27084
1.62612 0.63692 1.28205
1.63825 0.607123 1.27084
-1.61323 0.668222 1.28584
-1.61323 -0.668222 1.28584
-0.668222 1.61323 1.28584
-0.668222 -1.61323 1.28584
0.668222 1.61323 1.28584
0.668222 -1.61323 1.28584
1.61323 0.668222 1.28584
1.61323 -0.668222 1.28584
-1.62612 0.63692 1.71795
-1.60021 0.699472 1.71795
-1.61323 0.668222 1.71416
-1.60021 -0.699472 1.71795
-1.62612 -0.63692 1.71795
-1.61323 -0.668222 1.71416
-0.699472 1.60021 1.71795
-0.63692 1.62612 1.71795
-0.668222 1.61323 1.71416
-0.63692 -1.62612 1.71795
-0.699472 -1.60021 1.71795
-0.668222 -1.61323 1.71416
0.63692 1.62612 1.71795
0.699472 1.60021 1.71795
0.668222 1.61323 1.71416
0.699472 -1.60021 1.71795
0.63692 -1.62612 1.71795
0.668222 -1.61323 1.71416
1.60021 0.699472 1.71795
1.62612 0.63692 1.71795
1.61323 0.668222 1.71416
1.62612 -0.63692 1.71795
1.60021 -0.699472 1.71795
1.61323 -0.668222 1.71416
-1.649 -0.580314 1.74722
-1.63825 -0.607123 1.72916
-1.57636 0.755676 1.74722
-1.58772 0.729115 1.72916
-0.755676 -1.57636 1.74722
-0.729115 -1.58772 1.72916
-0.580314 1.649 1.74722
-0.607123 1.63825 1.72916
0.580314 -1.649 1.74722
[...]
CELL_DATA	3552
SCALARS element_id double 1
LOOKUP_TABLE  default
38550
38100
38250
38545
38555
37950
38400
38560
18613
18608
18158
18308
18603
18008
18458
18618
38549
38249
38099
38554
38544
38399
37949
38559
38551
38101
38251
38546
38556
37951
38401
38561
18607
18307
18157
18612
18602
18457
18007
18617
18614
18609
18159
18309
18604
18009
18459
18619
38548
38248
38098
38553
38543
38398
37948
38558
38552
38102
38252
38547
38557
37952
38402
38562
18606
18306
18156
18611
18601
18456
18006
18616
18610
18160
18310
18605
18615
18010
18460
18620
39223
39234
38994
38983
39463
39474
38754
38743
39006
39246
38766
39486
38995
39235
38755
39475
19053
19293
18813
19533
19064
19304
18824
18812
19544
19281
19292
19052
19041
19521
19532
18801
19054
19294
18814
19534
18811
19063
19303
18823
19543
19282
19291
19051
19042
19522
19531
18802
39224
39005
39233
38996
39236
38993
39245
38984
39464
38765
39473
38756
39476
38753
39485
38744
18810
19283
19062
19290
19055
19295
19050
19302
19043
19523
18822
19530
18815
19535
19542
18803
39225
39004
39232
38992
39244
38985
39465
38764
39472
38752
39484
38745
38997
39237
38757
39477
42712
42711
42713
42710
42714
42709
42715
42708
42716
42707
42717
42706
42718
42705
42719
42704
39226
39003
38998
39238
39243
38986
39466
38763
38758
39478
39483
38746
39231
38991
39471
38751
19061
19289
19049
19301
18821
19529
18809
19541
19284
19056
19296
19044
19524
18816
19536
18804
39227
39002
39230
38990
38987
39242
38762
39467
39470
38750
39482
38747
38999
39239
38759
39479
19060
19288
19048
19300
18820
19528
18808
19540
19285
19057
19297
19045
19525
18817
19537
18805
19286
19059
19287
19058
19047
19298
19299
19046
19526
18819
18818
19527
19538
18807
19539
18806
39228
39001
39000
39229
39240
38989
39241
38988
39468
38761
39469
38760
38749
39480
39481
38748
18165
18305
18155
18315
18015
18455
18005
18465
18301
18161
18311
18151
18451
18011
18461
18001
38107
38247
38097
38257
37957
38397
37947
38407
38243
38103
38253
38093
38393
37953
38403
37943
18164
18304
18154
18314
18014
18454
18004
18464
18302
18162
18312
18152
18452
18012
18462
18002
38106
38246
38096
38256
37956
38396
37946
38406
38244
38104
38254
38094
38394
37954
38404
37944
18163
18303
18153
18313
18013
18453
18003
18463
38105
38245
38095
38255
37955
38395
37945
38405
38120
38260
38110
38270
37970
38410
37960
38420
18178
18318
18168
18328
18028
18468
18018
18478
38259
38119
38269
38109
38409
37969
38419
37959
38121
38261
38111
38271
37971
38411
37961
38421
18317
18177
18327
18167
18467
18027
18477
18017
18179
18319
18169
18329
18029
18469
18019
18479
38258
38118
38268
38108
38408
37968
38418
37958
38122
38262
38112
38272
37972
38412
37962
38422
18316
18176
18326
18166
18466
18026
18476
18016
18180
18320
18170
18330
18030
18470
18020
18480
39252
39025
39024
39253
39264
39013
39265
39012
39492
38785
39493
38784
38773
39504
39505
38772
19310
19083
19311
19082
19071
19322
19323
19070
19550
18843
18842
19551
19562
18831
19563
18830
19309
19084
19312
19081
19072
19321
19324
19069
19549
18844
18841
19552
19561
18832
19564
18829
39023
39263
38783
39503
39251
39026
39254
39014
39266
39011
39491
38786
39494
38774
39506
38771
19308
19085
19313
19080
19320
19073
19325
19068
19548
18845
19553
18840
19560
18833
19565
18828
39250
39027
39255
39022
39262
39015
39267
39010
39490
38787
39495
38782
39502
38775
39507
38770
39021
39261
38781
39501
39249
39028
39256
39016
39268
39009
39489
38788
39496
38776
39508
38769
19307
19086
19314
19079
19319
19074
19067
19326
18846
19547
19554
18839
19559
18834
19566
18827
39248
39008
39488
38768
39029
39257
39020
39260
39017
39269
38789
39497
38780
39500
38777
39509
19306
19087
19315
19075
19327
19066
19546
18847
19555
18835
19567
18826
19078
19318
18838
19558
19305
19088
19316
19076
19328
19065
19545
18848
19556
18836
19568
18825
39019
19077
39259
19317
39270
18837
38779
19557
39499
39247
39030
39258
39018
39007
38790
39487
39498
38778
39510
38767
18630
18175
18325
18625
18635
18025
18475
18640
18626
18321
18171
18631
18621
18471
18021
18636
38572
38117
38267
38567
38577
37967
38417
38582
38568
38263
38113
38573
38563
38413
37963
38578
18629
18174
18324
18624
18634
18024
18474
18639
18627
18322
18172
18632
18622
18472
18022
18637
38571
38116
38266
38566
38576
37966
38416
38581
38569
38264
38114
38574
38564
38414
37964
38579
18628
18173
18323
18623
18633
18023
18473
18638
38570
38115
38265
38565
38575
37965
38415
38580
38590
38130
38280
38585
38595
37980
38430
38600
18648
18188
18338
18643
18653
18038
18488
18658
38589
38279
38129
38594
38584
38429
37979
38599
38591
38131
38281
38586
38596
37981
38431
38601
18647
18337
18187
18652
18642
18487
18037
18657
18649
18189
18339
18644
18654
18039
18489
18659
38588
38278
38128
38593
38583
38428
37978
38598
38592
38132
38282
38587
38597
37982
38432
38602
18646
18336
18186
18651
18641
18486
18036
18656
18650
18190
18340
18645
18655
18040
18490
18660
39271
39282
39042
39031
39511
39522
38802
38791
39054
19112
19101
19341
39294
19352
18872
38814
18861
19581
19592
39534
19329
19340
19100
19089
19569
19580
18860
18849
39043
39283
38803
39523
19111
19102
19342
19351
18871
18862
19582
19591
19330
19339
19099
19090
19570
19579
18859
18850
39272
39053
39281
39044
39284
39041
38813
38804
39524
38792
39293
39032
39512
39521
38801
39533
39273
39052
19331
19110
39280
39045
19338
19103
39285
39040
19343
19098
39292
39033
19350
19091
18870
19571
39513
38812
19578
18863
39520
38805
19583
18858
39525
38800
19590
18851
39532
38793
39274
39051
19332
19109
39279
39046
19337
19104
39286
39039
19344
19097
39291
39034
19092
19349
18869
19572
39514
38811
19577
18864
39519
38806
19584
18857
39526
38799
19589
18852
39531
38794
39275
39050
39278
39047
39038
39287
39290
39035
39515
38810
38807
39518
39527
38798
39530
38795
19333
19108
19336
19105
19096
19345
19093
19348
18868
19573
18865
19576
19585
18856
19588
18853
39276
39049
19334
19107
39048
39277
19335
19106
39288
39037
19095
19346
39289
39036
19347
19094
18867
19574
39516
38809
18866
19575
39517
38808
19586
18855
38797
39528
19587
18854
39529
38796
18195
18335
18185
18345
18045
18485
18035
18495
18331
18191
18341
18181
18481
18041
18491
18031
38137
38277
38127
38287
37987
38427
37977
38437
38273
38133
38283
38123
38423
37983
38433
37973
18194
18334
18184
18344
18044
18484
18034
18494
18332
18192
18342
18182
18482
18042
18492
18032
38136
38276
38126
38286
37986
38426
37976
38436
38274
38134
38284
38124
38424
37984
38434
37974
18193
18333
18183
18343
18043
18483
18033
18493
38135
38275
38125
38285
37985
38425
37975
38435
38150
38290
38140
38300
38000
38440
37990
38450
18208
18348
18198
18358
18058
18498
18048
18508
38289
38149
38299
38139
38439
37999
38449
37989
38151
38291
38141
38301
38001
38441
37991
38451
18347
18207
18357
18197
18497
18057
18507
18047
18209
18349
18199
18359
18059
18499
18049
18509
38288
38148
38298
38138
38438
37998
38448
37988
38152
38292
38142
38302
38002
38442
37992
38452
18346
18206
18356
18196
18496
18056
18506
18046
18210
18350
18200
18360
18060
18500
18050
18510
39300
39073
39072
39301
39312
39061
39313
39060
39540
38833
39541
38832
38821
39552
39553
38820
19358
19131
19359
19130
19119
19370
19118
19371
19598
18891
18890
19599
19610
18879
19611
18878
19357
19132
19360
19129
19120
19369
19117
19372
19597
18892
18889
19600
19609
18880
19612
18877
39299
39071
39311
39059
39539
38831
39551
38819
39074
39302
39062
39314
38834
39542
38822
39554
39298
39075
19356
19133
39303
39070
19361
19128
39310
39063
19368
19121
39315
39058
19373
19116
19596
18893
39538
38835
19601
18888
39543
38830
19608
18881
39550
38823
19613
18876
39555
38818
39297
39076
39069
39309
39316
39057
39537
38836
39544
38829
39549
38824
39556
38817
39304
39064
19355
19134
19362
19127
19367
19122
19374
19115
18894
19595
19602
18887
19607
18882
19614
18875
39296
39077
19354
19135
39305
39068
19363
19126
39308
39065
19123
19366
39317
39056
19375
19114
19594
18895
39536
38837
18886
19603
39545
38828
19606
18883
39548
38825
19615
18874
39557
38816
39067
39307
38827
39547
39295
39078
19353
19136
39306
19364
19125
39066
19124
19365
39055
39318
19376
19113
19593
18896
38838
39535
18885
19604
39546
19605
18884
38826
19616
18873
39558
38815
18670
18205
18355
18665
18675
18055
18505
18680
18666
18351
18201
18671
18661
18501
18051
18676
38612
38147
38297
38607
38617
37997
38447
38622
38608
38293
38143
38613
38603
38443
37993
38618
18669
18204
18354
18664
18674
18054
18504
18679
18667
18352
18202
18672
18662
18502
18052
18677
38611
38146
38296
38606
38616
37996
38446
38621
38609
38294
38144
38604
38444
37994
38619
38614
18668
18203
18353
18663
18673
18053
18503
18678
38610
38145
38295
38605
38615
37995
38445
38620
38630
38160
38310
38625
38635
38010
38460
38640
18688
18218
18368
18683
18693
18068
18518
18698
38629
38309
38159
38634
38624
38459
38009
38639
38631
38161
38311
38626
38636
38011
38461
38641
18687
18367
18217
18692
18682
18517
18067
18697
18689
18219
18369
18684
18694
18069
18519
18699
38628
38308
38158
38633
38623
38458
38008
38638
38632
38162
38312
38627
38637
38012
38462
38642
18686
18366
18216
18691
18681
18516
18066
18696
18690
18220
18370
18685
18695
18070
18520
18700
39319
39102
39330
39090
39079
39342
38862
39559
39570
38850
39582
38839
39091
19149
39331
19389
18909
38851
19629
39571
19377
19160
19388
19148
19400
19137
19617
18920
19628
18908
19640
18897
39320
39101
19378
19159
39329
39092
19387
19150
39332
39089
19147
19390
39341
39080
19399
19138
19618
18919
39560
38861
18910
19627
39569
38852
19630
18907
39572
38849
19639
18898
39581
38840
19379
19158
19386
19151
19391
19146
19398
19139
19619
18918
19626
18911
19631
18906
19638
18899
39328
39088
39568
38848
39321
39100
39093
39333
39340
39081
39561
38860
38853
39573
39580
38841
39322
39099
19380
19157
39327
39094
19385
19152
39087
39334
19392
19145
39339
39082
19397
19140
19620
18917
39562
38859
19625
18912
38854
39567
19632
18905
39574
38847
19637
18900
39579
38842
39323
39098
19381
19156
39326
39095
19384
19153
39335
39086
19144
19393
39338
39083
19396
19141
18916
19621
39563
38858
18913
19624
39566
38855
19633
18904
39575
38846
19636
18901
39578
38843
39324
39097
19382
19155
39096
39325
19383
19154
39336
39085
19143
19394
39337
39084
19395
19142
18915
19622
39564
38857
18914
19623
39565
38856
19634
18903
38845
39576
19635
18902
39577
38844
18225
18365
18215
18375
18075
18515
18065
18525
18361
18221
18371
18211
18511
18071
18521
18061
38167
38307
38157
38317
38017
38457
38007
38467
38303
38163
38313
38153
38453
38013
38463
38003
18224
18364
18214
18374
18074
18514
18064
18524
18362
18222
18372
18212
18512
18072
18522
18062
38166
38306
38156
38316
38016
38456
38006
38466
38304
38164
38314
38154
38014
38464
38004
38454
18223
18363
18213
18373
18073
18513
18063
18523
38165
38305
38155
38315
38015
38455
38005
38465
38180
38320
38170
38330
38030
38470
38020
38480
18238
18378
18228
18388
18088
18528
18078
18538
38319
38479
38179
38329
38169
38469
38029
38019
38181
38321
38171
38331
38031
38471
38021
38481
18377
18237
18387
18227
18527
18087
18537
18077
18239
18379
18229
18389
18089
18529
18079
18539
38318
38178
38328
38168
38468
38028
38478
38018
38182
38322
38172
38332
38032
38472
38022
38482
18376
18236
18386
18226
18526
18086
18536
18076
18240
18380
18230
18390
18090
18530
18080
18540
39348
39121
39120
39349
39360
39109
39361
39108
39588
38881
39589
38880
38869
39600
39601
38868
19406
19179
19407
19178
19167
19418
19166
19419
18939
19646
18938
19647
19658
18927
19659
18926
39347
39122
19405
19180
39350
39119
19408
19177
39359
39110
19168
19417
39107
39362
19165
19420
18940
19645
38882
39587
18937
19648
39590
38879
19657
18928
39599
38870
19660
18925
39602
38867
39346
39123
19404
19181
39118
39351
19409
19176
39111
39358
19416
19169
39363
39106
19421
19164
19644
18941
39586
38883
19649
18936
38878
39591
19656
18929
38871
39598
19661
18924
39603
38866
39345
39124
39352
39117
39357
39112
39364
39105
39585
38884
39592
38877
39597
38872
39604
38865
19403
19182
19410
19175
19415
19170
19422
19163
19643
18942
19650
18935
19655
18930
19662
18923
39344
39125
19402
19183
39353
39116
19411
19174
39356
39113
19171
19414
39365
39104
19423
19162
19642
18943
39584
38885
18934
19651
39593
38876
19654
18931
39596
38873
19663
18922
39605
38864
19401
19184
19412
19173
19172
19413
19424
19161
19641
18944
18933
19652
19653
18932
19664
18921
39115
39355
38875
39595
39126
39354
39366
38886
39594
38874
39606
39343
39114
39103
39583
38863
18710
18235
18385
18705
18715
18085
18535
18720
18706
18381
18231
18711
18701
18531
18081
18716
38652
38177
38327
38647
38657
38027
38477
38662
38648
38323
38173
38653
38643
38473
38023
38658
18709
18234
18384
18704
18714
18084
18534
18719
18707
18382
18232
18712
18702
18532
18082
18717
38651
38176
38326
38646
38656
38026
38476
38661
38649
38324
38174
38654
38644
38474
38024
38659
18708
18233
18383
18703
18713
18083
18533
18718
38650
38175
38325
38645
38655
38025
38475
38660
38670
38190
38340
38665
38675
38040
38490
38680
18728
18248
18398
18723
18733
18098
18548
18738
38669
38339
38189
38674
38664
38489
38039
38679
38671
38191
38341
38666
38676
38041
38491
38681
18727
18397
18247
18732
18722
18547
18097
18737
18729
18249
18399
18724
18734
18099
18549
18739
38668
38338
38188
38673
38663
38488
38038
38678
38672
38192
38342
38667
38677
38042
38492
38682
18726
18396
18246
18731
18721
18546
18096
18736
18730
18250
18400
18725
18735
18100
18550
18740
39138
39367
39150
39378
39127
39390
38910
39607
39618
38898
39630
38887
39139
39379
38899
39619
19425
19208
19436
19197
19196
19437
19448
19185
19665
18968
18957
19676
19677
18956
19688
18945
39368
39149
19426
19207
39377
39140
19435
19198
39380
39137
19195
19438
39389
39128
19447
19186
19666
18967
39608
38909
18958
19675
39617
38900
19678
18955
39620
38897
19687
18946
39629
38888
19427
19206
19434
19199
19439
19194
19446
19187
19667
18966
19674
18959
19679
18954
19686
18947
39369
39148
39376
39141
39381
39136
39388
39129
39609
38908
39616
38901
39621
38896
39628
38889
39370
39147
19428
19205
39142
39375
19433
19200
39135
39382
19440
19193
39387
39130
19188
19445
18965
19668
39610
38907
19673
18960
38902
39615
19680
18953
38895
39622
19685
18948
39627
38890
19429
19204
19432
19201
19192
19441
19189
19444
18964
19669
18961
19672
19681
18952
19684
18949
39371
39146
39374
39143
39134
39383
39386
39131
39611
38906
38903
39614
39623
38894
39626
38891
19430
19203
19431
19202
19191
19442
19190
19443
18963
19670
18962
19671
19682
18951
19683
18950
39372
39145
39144
39373
39384
39133
39385
39132
39612
38905
39613
38904
38893
39624
39625
38892
18255
18395
18245
18405
18105
18545
18095
18555
18391
18251
18401
18241
18541
18101
18551
18091
38197
38337
38187
38347
38047
38487
38037
38497
38333
38193
38343
38183
38483
38043
38493
38033
18254
18394
18244
18404
18104
18544
18094
18554
18392
18252
18402
18242
18542
18102
18552
18092
38196
38336
38186
38346
38046
38486
38036
38496
38334
38194
38344
38184
38484
38044
38494
38034
18253
18393
18243
18403
18103
18543
18093
18553
38195
38335
38185
38345
38045
38485
38035
38495
38210
38350
38200
38360
38060
38500
38050
38510
18268
18408
18258
18418
18118
18558
18108
18568
38349
38209
38359
38199
38499
38059
38509
38049
38211
38351
38201
38361
38061
38501
38051
38511
18407
18267
18417
18257
18557
18117
18567
18107
18269
18409
18259
18419
18119
18559
18109
18569
38348
38208
38358
38198
38498
38058
38508
38048
38212
38352
38202
38362
38062
38502
38052
38512
18406
18266
18416
18256
18556
18116
18566
18106
18270
18410
18260
18420
18120
18560
18110
18570
39396
39169
39168
39397
39408
39157
39409
39156
39636
38929
39637
38928
38917
39648
39649
38916
19454
19227
19455
19226
19215
19466
19467
19214
19694
18987
18986
19695
19706
18975
19707
18974
39395
39170
19453
19228
39398
39167
19456
19225
39407
39158
19216
19465
39410
39155
19468
19213
19693
18988
39635
38930
18985
19696
39638
38927
19705
18976
39647
38918
19708
18973
39650
38915
39394
39171
19452
19229
39166
39399
19457
19224
39159
39406
19464
19217
39411
39154
19469
19212
19692
18989
39634
38931
19697
18984
38926
39639
19704
18977
38919
39646
19709
18972
39651
38914
39393
39172
39400
39165
39405
39160
39412
39153
39633
38932
39640
38925
39645
38920
39652
38913
19451
19230
19458
19223
19463
19218
19211
19470
19691
18990
19698
18983
19703
18978
19710
18971
39392
39173
19450
19231
39401
39164
19459
19222
39404
39161
19219
19462
39413
39152
19471
19210
19690
18991
39632
38933
18982
19699
39641
38924
19702
18979
39644
38921
19711
18970
39653
38912
19449
19232
19460
19221
19220
19461
19472
19209
19689
18992
18981
19700
19701
18980
19712
18969
39391
39174
39402
39163
39403
39162
39151
39414
38934
39631
39642
38923
39643
38922
39654
38911
18750
18265
18415
18745
18755
18115
18565
18760
18746
18411
18261
18751
18741
18561
18111
18756
38692
38207
38357
38687
38697
38057
38507
38702
38688
38353
38203
38693
38683
38503
38053
38698
18749
18264
18414
18744
18754
18114
18564
18759
18747
18412
18262
18752
18742
18562
18112
18757
38691
38206
38356
38686
38696
38056
38506
38701
38689
38354
38204
38694
38684
38504
38054
38699
18748
18263
18413
18743
18753
18113
18563
18758
38690
38205
38355
38685
38695
38055
38505
38700
38710
38220
38370
38705
38715
38070
38520
38720
18768
18278
18428
18763
18773
18128
18578
18778
38709
38369
38219
38714
38704
38519
38069
38719
38711
38221
38371
38706
38716
38071
38521
38721
18767
18427
18277
18772
18762
18577
18127
18777
18769
18279
18429
18764
18774
18129
18579
18779
38708
38368
38218
38713
38703
38518
38068
38718
38712
38222
38372
38707
38717
38072
38522
38722
18766
18426
18276
18771
18761
18576
18126
18776
18770
18280
18430
18765
18775
18130
18580
18780
39415
39198
39426
39187
39427
39186
39175
39438
38958
39655
39666
38947
39667
38946
39678
38935
19473
19256
19484
19245
19244
19485
19496
19233
19713
19016
19005
19724
19725
19004
19736
18993
39416
39197
19474
19255
39425
39188
19483
19246
39428
39185
19243
19486
39437
39176
19495
19234
19714
19015
39656
38957
19006
19723
39665
38948
19726
19003
39668
38945
19735
18994
39677
38936
39417
39196
19475
19254
39424
39189
19482
19247
39429
39184
19487
19242
39436
39177
19235
19494
19715
19014
39657
38956
19722
19007
39664
38949
19727
19002
39669
38944
19734
18995
39676
38937
39418
39195
39190
39423
39183
39430
39435
39178
38955
39658
38950
39663
38943
39670
39675
38938
19476
19253
19481
19248
19488
19241
19493
19236
19716
19013
19721
19008
19728
19001
19733
18996
39419
39194
19477
19252
39422
39191
19480
19249
39431
39182
19240
19489
39434
39179
19492
19237
19717
19012
39659
38954
19009
19720
38951
39662
19729
19000
39671
38942
19732
18997
39674
38939
19478
19251
19479
19250
19239
19490
19491
19238
19718
19011
19010
19719
19730
18999
19731
18998
39420
39193
39192
39421
39432
39181
39433
39180
39660
38953
39661
38952
38941
39672
39673
38940
18285
18425
18275
18435
18135
18575
18125
18585
18421
18281
18431
18271
18571
18131
18581
18121
38227
38367
38217
38377
38077
38517
38067
38527
38363
38223
38373
38213
38513
38073
38523
38063
18284
18424
18274
18434
18134
18574
18124
18584
18422
18282
18432
18272
18572
18132
18582
18122
38226
38366
38216
38376
38516
38066
38526
38076
38364
38224
38374
38214
38514
38074
38524
38064
18283
18423
18273
18433
18133
18573
18123
18583
38225
38365
38215
38375
38075
38515
38065
38525
38240
38380
38230
38390
38090
38530
38080
38540
18298
18438
18288
18448
18148
18588
18138
18598
38379
38239
38389
38229
38529
38089
38539
38079
38241
38381
38231
38391
38091
38531
38081
38541
18437
18297
18447
18287
18587
18147
18597
18137
18299
18439
18289
18449
18149
18589
18139
18599
38378
38238
38388
38228
38528
38088
38538
38078
38242
38382
38232
38392
38092
38532
38082
38542
18436
18296
18446
18286
18586
18146
18596
18136
18300
18440
18290
18450
18150
18590
18140
18600
39444
39217
39216
39445
39456
39205
39457
39204
39684
38977
39685
38976
38965
39696
39697
38964
19502
19275
19503
19274
19263
19514
19515
19262
19035
19742
19034
19743
19754
19023
19755
19022
39443
39218
19501
19276
39446
39215
19504
19273
39206
39455
19264
19513
39458
39203
19516
19261
19036
19741
39683
38978
19033
19744
38975
39686
19753
19024