# vtk DataFile Version 2.0
DummyMesh output
ASCII
DATASET UNSTRUCTURED_GRID
POINTS 46258 double
nan nan nan
1.55926 0.794483 1.2
1.65785 0.557826 1.22877
1.649 0.580314 1.25278
1.63825 0.607123 1.27084
1.62612 0.63692 1.28205
1.61323 0.668222 1.28584
1.60021 0.699472 1.28205
1.58772 0.729115 1.27084
1.57636 0.755676 1.25278
1.56672 0.777833 1.22877
1.33071 1.13653 0.3
1.13653 1.33071 0.3
1.31818 1.1498 0.271231
1.3014 1.16719 0.247221
1.28121 1.18784 0.229162
1.2586 1.21073 0.217955
1.23471 1.23471 0.214156
1.21073 1.2586 0.217955
1.18784 1.28121 0.229162
1.16719 1.3014 0.247221
1.1498 1.31818 0.271231
0.794483 1.55926 1.2
0.54078 1.66435 1.2
0.777833 1.56672 1.22877
0.755676 1.57636 1.25278
0.729115 1.58772 1.27084
0.699472 1.60021 1.28205
0.668222 1.61323 1.28584
0.63692 1.62612 1.28205
0.607123 1.63825 1.27084
0.580314 1.649 1.25278
0.557826 1.65785 1.22877
1.66435 0.54078 1.8
1.55926 0.794483 1.8
1.65785 0.557826 1.77123
1.649 0.580314 1.74722
1.63825 0.607123 1.72916
1.62612 0.63692 1.71795
1.61323 0.668222 1.71416
1.60021 0.699472 1.71795
1.58772 0.729115 1.72916
1.57636 0.755676 1.74722
1.56672 0.777833 1.77123
1.33071 1.13653 2.7
1.13653 1.33071 2.7
1.31818 1.1498 2.72877
1.3014 1.16719 2.75278
1.28121 1.18784 2.77084
1.2586 1.21073 2.78205
1.23471 1.23471 2.78584
1.21073 1.2586 2.78205
1.18784 1.28121 2.77084
1.16719 1.3014 2.75278
1.1498 1.31818 2.72877
0.794483 1.55926 1.8
0.54078 1.66435 1.8
0.777833 1.56672 1.77123
0.755676 1.57636 1.74722
0.729115 1.58772 1.72916
0.699472 1.60021 1.71795
0.668222 1.61323 1.71416
0.63692 1.62612 1.71795
0.607123 1.63825 1.72916
0.580314 1.649 1.74722
0.557826 1.65785 1.77123
1.66435 0.54078 4.2
1.55926 0.794483 4.2
1.65785 0.557826 4.22877
1.649 0.580314 4.25278
1.63825 0.607123 4.27084
1.62612 0.63692 4.28205
1.61323 0.668222 4.28584
1.60021 0.699472 4.28205
1.58772 0.729115 4.27084
1.57636 0.755676 4.25278
1.56672 0.777833 4.22877
1.33071 1.13653 3.3
1.13653 1.33071 3.3
1.31818 1.1498 3.27123
1.3014 1.16719 3.24722
1.28121 1.18784 3.22916
1.2586 1.21073 3.21795
1.23471 1.23471 3.21416
1.21073 1.2586 3.21795
1.18784 1.28121 3.22916
1.16719 1.3014 3.24722
1.1498 1.31818 3.27123
0.794483 1.55926 4.2
0.54078 1.66435 4.2
0.777833 1.56672 4.22877
0.755676 1.57636 4.25278
0.729115 1.58772 4.27084
0.699472 1.60021 4.28205
0.668222 1.61323 4.28584
0.63692 1.62612 4.28205
0.607123 1.63825 4.27084
0.580314 1.649 4.25278
0.557826 1.65785 4.22877
1.66435 0.54078 4.8
1.55926 0.794483 4.8
1.65785 0.557826 4.77123
1.649 0.580314 4.74722
1.63825 0.607123 4.72916
1.62612 0.63692 4.71795
1.61323 0.668222 4.71416
1.60021 0.699472 4.71795
1.58772 0.729115 4.72916
1.57636 0.755676 4.74722
1.56672 0.777833 4.77123
1.33071 1.13653 5.7
1.13653 1.33071 5.7
1.31818 1.1498 5.72877
1.3014 1.16719 5.75278
1.28121 1.18784 5.77084
1.2586 1.21073 5.78205
1.23471 1.23471 5.78584
1.21073 1.2586 5.78205
1.18784 1.28121 5.77084
1.16719 1.3014 5.75278
1.1498 1.31818 5.72877
0.794483 1.55926 4.8
0.54078 1.66435 4.8
0.777833 1.56672 4.77123
0.755676 1.57636 4.74722
0.729115 1.58772 4.72916
0.699472 1.60021 4.71795
0.668222 1.61323 4.71416
0.63692 1.62612 4.71795
0.607123 1.63825 4.72916
0.580314 1.649 4.74722
0.557826 1.65785 4.77123
1.66435 0.54078 7.2
1.55926 0.794483 7.2
1.65785 0.557826 7.22877
1.649 0.580314 7.25278
1.63825 0.607123 7.27084
1.62612 0.63692 7.28205
1.61323 0.668222 7.28584
1.60021 0.699472 7.28205
1.58772 0.729115 7.27084
1.57636 0.755676 7.25278
1.56672 0.777833 7.22877
1.33071 1.13653 6.3
1.13653 1.33071 6.3
1.31818 1.1498 6.27123
1.3014 1.16719 6.24722
1.28121 1.18784 6.22916
1.2586 1.21073 6.21795
1.23471 1.23471 6.21416
1.21073 1.2586 6.21795
1.18784 1.28121 6.22916
1.16719 1.3014 6.24722
1.1498 1.31818 6.27123
0.794483 1.55926 7.2
0.54078 1.66435 7.2
0.777833 1.56672 7.22877
0.755676 1.57636 7.25278
0.729115 1.58772 7.27084
0.699472 1.60021 7.28205
0.668222 1.61323 7.28584
0.63692 1.62612 7.28205
0.607123 1.63825 7.27084
0.580314 1.649 7.25278
0.557826 1.65785 7.22877
1.66435 0.54078 7.8
1.55926 0.794483 7.8
1.65785 0.557826 7.77123
1.649 0.580314 7.74722
1.63825 0.607123 7.72916
1.62612 0.63692 7.71795
1.61323 0.668222 7.71416
1.60021 0.699472 7.71795
1.58772 0.729115 7.72916
1.57636 0.755676 7.74722
1.56672 0.777833 7.77123
1.33071 1.13653 8.7
1.13653 1.33071 8.7
1.31818 1.1498 8.72877
1.3014 1.16719 8.75278
1.28121 1.18784 8.77084
1.2586 1.21073 8.78205
1.23471 1.23471 8.78584
1.21073 1.2586 8.78205
1.18784 1.28121 8.77084
1.16719 1.3014 8.75278
1.1498 1.31818 8.72877
0.794483 1.55926 7.8
0.54078 1.66435 7.8
0.777833 1.56672 7.77123
0.755676 1.57636 7.74722
0.729115 1.58772 7.72916
0.699472 1.60021 7.71795
0.668222 1.61323 7.71416
0.63692 1.62612 7.71795
0.607123 1.63825 7.72916
0.580314 1.649 7.74722
0.557826 1.65785 7.77123
1.66435 0.54078 10.2
1.55926 0.794483 10.2
1.65785 0.557826 10.2288
1.649 0.580314 10.2528
1.63825 0.607123 10.2708
1.62612 0.63692 10.282
1.61323 0.668222 10.2858
1.60021 0.699472 10.282
1.58772 0.729115 10.2708
1.57636 0.755676 10.2528
1.56672 0.777833 10.2288
1.33071 1.13653 9.3
1.13653 1.33071 9.3
1.31818 1.1498 9.27123
1.3014 1.16719 9.24722
1.28121 1.18784 9.22916
1.2586 1.21073 9.21795
1.23471 1.23471 9.21416
1.21073 1.2586 9.21795
1.18784 1.28121 9.22916
1.16719 1.3014 9.24722
1.1498 1.31818 9.27123
0.794483 1.55926 10.2
0.54078 1.66435 10.2
0.777833 1.56672 10.2288
0.755676 1.57636 10.2528
0.729115 1.58772 10.2708
0.699472 1.60021 10.282
0.668222 1.61323 10.2858
0.63692 1.62612 10.282
0.607123 1.63825 10.2708
0.580314 1.649 10.2528
0.557826 1.65785 10.2288
1.66435 0.54078 10.8
1.55926 0.794483 10.8
1.65785 0.557826 10.7712
1.649 0.580314 10.7472
1.63825 0.607123 10.7292
1.62612 0.63692 10.718
1.61323 0.668222 10.7142
1.60021 0.699472 10.718
1.58772 0.729115 10.7292
1.57636 0.755676 10.7472
1.56672 0.777833 10.7712
1.33071 1.13653 11.7
1.13653 1.33071 11.7
1.31818 1.1498 11.7288
1.3014 1.16719 11.7528
1.28121 1.18784 11.7708
1.2586 1.21073 11.782
1.23471 1.23471 11.7858
1.21073 1.2586 11.782
1.18784 1.28121 11.7708
1.16719 1.3014 11.7528
1.1498 1.31818 11.7288
0.794483 1.55926 10.8
0.54078 1.66435 10.8
0.777833 1.56672 10.7712
0.755676 1.57636 10.7472
0.729115 1.58772 10.7292
0.699472 1.60021 10.718
0.668222 1.61323 10.7142
0.63692 1.62612 10.718
0.607123 1.63825 10.7292
0.580314 1.649 10.7472
0.557826 1.65785 10.7712
1.66435 0.54078 13.2
1.55926 0.794483 13.2
1.65785 0.557826 13.2288
1.649 0.580314 13.2528
1.63825 0.607123 13.2708
1.62612 0.63692 13.282
1.61323 0.668222 13.2858
1.60021 0.699472 13.282
1.58772 0.729115 13.2708
1.57636 0.755676 13.2528
1.56672 0.777833 13.2288
1.33071 1.13653 12.3
1.13653 1.33071 12.3
1.31818 1.1498 12.2712
1.3014 1.16719 12.2472
1.28121 1.18784 12.2292
1.2586 1.21073 12.218
1.23471 1.23471 12.2142
1.21073 1.2586 12.218
1.18784 1.28121 12.2292
1.16719 1.3014 12.2472
1.1498 1.31818 12.2712
0.794483 1.55926 13.2
0.54078 1.66435 13.2
0.777833 1.56672 13.2288
0.755676 1.57636 13.2528
0.729115 1.58772 13.2708
0.699472 1.60021 13.282
0.668222 1.61323 13.2858
0.63692 1.62612 13.282
0.607123 1.63825 13.2708
0.580314 1.649 13.2528
0.557826 1.65785 13.2288
1.66435 0.54078 13.8
1.55926 0.794483 13.8
1.65785 0.557826 13.7712
1.649 0.580314 13.7472
1.63825 0.607123 13.7292
1.62612 0.63692 13.718
1.61323 0.668222 13.7142
1.60021 0.699472 13.718
1.58772 0.729115 13.7292
1.57636 0.755676 13.7472
1.56672 0.777833 13.7712
1.33071 1.13653 14.7
1.13653 1.33071 14.7
1.31818 1.1498 14.7288
1.3014 1.16719 14.7528
1.28121 1.18784 14.7708
1.2586 1.21073 14.782
1.23471 1.23471 14.7858
1.21073 1.2586 14.782
1.18784 1.28121 14.7708
1.16719 1.3014 14.7528
1.1498 1.31818 14.7288
0.794483 1.55926 13.8
0.54078 1.66435 13.8
0.777833 1.56672 13.7712
0.755676 1.57636 13.7472
0.729115 1.58772 13.7292
0.699472 1.60021 13.718
0.668222 1.61323 13.7142
0.63692 1.62612 13.718
0.607123 1.63825 13.7292
0.580314 1.649 13.7472
0.557826 1.65785 13.7712
-0.54078 1.66435 1.2
-0.794483 1.55926 1.2
-0.557826 1.65785 1.22877
-0.580314 1.649 1.25278
-0.607123 1.63825 1.27084
-0.63692 1.62612 1.28205
-0.668222 1.61323 1.28584
-0.699472 1.60021 1.28205
-0.729115 1.58772 1.27084
-0.755676 1.57636 1.25278
-0.777833 1.56672 1.22877
-1.13653 1.33071 0.3
-1.33071 1.13653 0.3
-1.1498 1.31818 0.271231
-1.16719 1.3014 0.247221
-1.18784 1.28121 0.229162
-1.21073 1.2586 0.217955
-1.23471 1.23471 0.214156
-1.2586 1.21073 0.217955
-1.28121 1.18784 0.229162
-1.3014 1.16719 0.247221
-1.31818 1.1498 0.271231
-1.55926 0.794483 1.2
-1.66435 0.54078 1.2
-1.56672 0.777833 1.22877
-1.57636 0.755676 1.25278
-1.58772 0.729115 1.27084
-1.60021 0.699472 1.28205
-1.61323 0.668222 1.28584
-1.62612 0.63692 1.28205
-1.63825 0.607123 1.27084
-1.649 0.580314 1.25278
-1.65785 0.557826 1.22877
-0.54078 1.66435 1.8
-0.794483 1.55926 1.8
-0.557826 1.65785 1.77123
-0.580314 1.649 1.74722
-0.607123 1.63825 1.72916
-0.63692 1.62612 1.71795
-0.668222 1.61323 1.71416
-0.699472 1.60021 1.71795
-0.729115 1.58772 1.72916
-0.755676 1.57636 1.74722
-0.777833 1.56672 1.77123
-1.13653 1.33071 2.7
-1.33071 1.13653 2.7
-1.1498 1.31818 2.72877
-1.16719 1.3014 2.75278
-1.18784 1.28121 2.77084
-1.21073 1.2586 2.78205
-1.23471 1.23471 2.78584
-1.2586 1.21073 2.78205
-1.28121 1.18784 2.77084
-1.3014 1.16719 2.75278
-1.31818 1.1498 2.72877
-1.55926 0.794483 1.8
-1.66435 0.54078 1.8
-1.56672 0.777833 1.77123
-1.57636 0.755676 1.74722
-1.58772 0.729115 1.72916
-1.60021 0.699472 1.71795
-1.61323 0.668222 1.71416
-1.62612 0.63692 1.71795
-1.63825 0.607123 1.72916
-1.649 0.580314 1.74722
-1.65785 0.557826 1.77123
-0.54078 1.66435 4.2
-0.794483 1.55926 4.2
-0.557826 1.65785 4.22877
-0.580314 1.649 4.25278
-0.607123 1.63825 4.27084
-0.63692 1.62612 4.28205
-0.668222 1.61323 4.28584
-0.699472 1.60021 4.28205
-0.729115 1.58772 4.27084
-0.755676 1.57636 4.25278
-0.777833 1.56672 4.22877
-1.13653 1.33071 3.3
-1.33071 1.13653 3.3
-1.1498 1.31818 3.27123
-1.16719 1.3014 3.24722
-1.18784 1.28121 3.22916
-1.21073 1.2586 3.21795
-1.23471 1.23471 3.21416
-1.2586 1.21073 3.21795
-1.28121 1.18784 3.22916
-1.3014 1.16719 3.24722
[...]
CELL_DATA	24736
SCALARS element_id double 1
LOOKUP_TABLE  default
37762
37849
37763
37846
37777
37850
37778
37847
37792
37851
37764
37843
37793
37848
37779
37844
37794
37845
37765
37840
37780
37841
37795
37842
37766
37837
37781
37838
37796
37839
37767
37834
37782
37835
37797
37836
37768
37831
37783
37832
37798
37833
37769
37828
37784
37829
37799
37830
37800
37827
37785
37826
37770
37825
37801
37824
37786
37823
37771
37822
37802
37821
37787
37820
37772
37819
37803
37818
37788
37817
37773
37816
37804
37815
37789
37814
37805
37812
37774
37813
37806
37809
37790
37811
37791
37808
37775
37810
37776
37807
28461
21246
28161
21247
28561
22746
28261
22747
28661
24246
27861
21248
28361
24247
33216
37461
27961
22748
37161
33219
28061
24248
33217
37462
27561
21249
33220
37162
33222
36861
27661
22749
33218
37463
27761
24249
33223
36862
33221
37163
33225
36561
33224
36863
27261
21250
33226
36562
27361
22750
27461
24250
33227
36563
36261
33228
36262
33229
26961
21251
33230
36263
27061
22751
27161
24251
35961
33231
35962
33232
35963
33233
26661
21252
26761
22752
26861
24252
35661
33234
35662
33235
35663
33236
26361
26461
26561
22753
24253
21253
35361
33237
33238
35362
33239
35363
35063
33242
35062
33241
35061
33240
26261
24254
26161
22754
26061
21254
34763
33245
34762
33244
34761
33243
25961
24255
25861
22755
33248
34463
25761
21255
33247
34462
34461
33246
33251
34163
25661
24256
25561
22756
33250
34162
25461
21256
33254
33863
33249
34161
33257
33563
33253
33862
25361
24257
33260
33263
25261
22757
33252
33861
33256
33562
25161
21257
33259
33262
25061
24258
33255
33561
24961
22758
33258
33261
24761
24259
24861
21258
24461
24260
24661
22759
24361
22760
24561
21259
24261
21260
28462
21231
28162
21232
28562
22731
28262
22732
28662
24231
27862
21233
28362
24232
33171
37464
27962
22733
37164
33174
28062
24233
33172
37465
27562
21234
33175
37165
33177
36864
27662
22734
33173
37466
27762
24234
33178
36865
33176
37166
33180
36564
33179
36866
27262
21235
33181
36565
27362
22735
27462
24235
33182
36566
36264
33183
36265
33184
26962
21236
33185
36266
27062
22736
27162
24236
35964
33186
35965
33187
35966
33188
26662
21237
26762
22737
26862
24237
35664
33189
35665
33190
35666
33191
26362
26462
26562
22738
24238
21238
35364
33192
33193
35365
33194
35366
35066
33197
35065
33196
35064
33195
26262
24239
26162
22739
26062
21239
34766
33200
34765
33199
34764
33198
25962
24240
25862
22740
33203
34466
25762
21240
33202
34465
34464
33201
33206
34166
25662
24241
25562
22741
33205
34165
25462
21241
33209
33866
33204
34164
33212
33566
33208
33865
25362
24242
33215
33266
25262
22742
33207
33864
33211
33565
25162
21242
33214
33265
25062
24243
33210
33564
24962
22743
33213
33264
24762
24244
24862
21243
24462
24245
24662
22744
24362
22745
24562
21244
24262
21245
28463
21216
28163
21217
28563
22716
28263
22717
28663
24216
27863
21218
28363
24217
33126
37467
27963
22718
37167
33129
28063
24218
33127
37468
27563
21219
33130
37168
33132
36867
27663
22719
33128
37469
27763
24219
33133
36868
33131
37169
33135
36567
33134
36869
27263
21220
33136
36568
27363
22720
27463
24220
33137
36569
36267
33138
36268
33139
26963
21221
33140
36269
27063
22721
27163
24221
35967
33141
35968
33142
35969
33143
26663
21222
26763
22722
26863
24222
35667
33144
35668
33145
35669
33146
26363
26463
26563
22723
24223
21223
35367
33147
33148
35368
33149
35369
35069
33152
35068
33151
35067
33150
26263
24224
26163
22724
26063
21224
34769
33155
34768
33154
34767
33153
25963
24225
25863
22725
33158
34469
25763
21225
33157
34468
34467
33156
33161
34169
25663
24226
25563
22726
33160
34168
25463
21226
33164
33869
33159
34167
33167
33569
33163
33868
25363
24227
33170
33269
25263
22727
33162
33867
33166
33568
25163
21227
33169
33268
25063
24228
33165
33567
24963
22728
33168
33267
24763
24229
24863
21228
24463
24230
24663
22729
24363
22730
24563
21229
24263
21230
28464
21201
28164
21202
28564
22701
28264
22702
28664
24201
27864
21203
28364
24202
33081
37470
27964
22703
37170
33084
28064
24203
33082
37471
27564
21204
33085
37171
33087
36870
27664
22704
33083
37472
27764
24204
33088
36871
33086
37172
33090
36570
33089
36872
27264
21205
33091
36571
27364
22705
27464
24205
33092
36572
36270
33093
36271
33094
26964
21206
33095
36272
27064
22706
27164
24206
35970
33096
35971
33097
35972
33098
26664
21207
26764
22707
26864
24207
35670
33099
35671
33100
35672
33101
26364
26464
26564
24208
22708
21208
33102
35370
33103
35371
33104
35372
35072
33107
35071
33106
35070
33105
26264
24209
26164
22709
26064
21209
34772
33110
34771
33109
34770
33108
25964
24210
25864
22710
33113
34472
25764
21210
33112
34471
34470
33111
33116
34172
25664
24211
25564
22711
33115
34171
25464
21211
33119
33872
33114
34170
33122
33572
33118
33871
25364
24212
33125
33272
25264
22712
33117
33870
33121
33571
25164
21212
33124
33271
25064
24213
33120
33570
24964
22713
33123
33270
24764
24214
24864
21213
24464
24215
24664
22714
24364
22715
24564
21214
24264
21215
28465
21186
28165
21187
28565
22686
28265
22687
28665
24186
27865
21188
28365
24187
33036
37473
27965
22688
37173
33039
28065
24188
33037
37474
27565
21189
33040
37174
33042
36873
27665
22689
33038
37475
27765
24189
33043
36874
33041
37175
33045
36573
33044
36875
27265
21190
33046
36574
27365
22690
27465
24190
33047
36575
36273
33048
36274
33049
26965
21191
33050
36275
27065
22691
27165
24191
35973
33051
35974
33052
35975
33053
26665
21192
26765
22692
26865
24192
35673
33054
35674
33055
35675
33056
26365
26465
26565
24193
22693
21193
33057
35373
33058
35374
33059
35375
35075
33062
35074
33061
35073
33060
26265
24194
26165
22694
26065
21194
34775
33065
34774
33064
34773
33063
25965
24195
25865
22695
33068
34475
25765
21195
33067
34474
34473
33066
33071
34175
25665
24196
25565
22696
33070
34174
25465
21196
33074
33875
33069
34173
33077
33575
33073
33874
25365
24197
33080
33275
25265
22697
33072
33873
33076
33574
25165
21197
33079
33274
25065
24198
33075
33573
24965
22698
33078
33273
24765
24199
24865
21198
24465
24200
24665
22699
24365
22700
24565
21199
24265
21200
28466
21171
28166
21172
28566
22671
28266
22672
28666
24171
27866
21173
28366
24172
32991
37476
27966
22673
37176
32994
28066
24173
32992
37477
27566
21174
32995
37177
32997
36876
27666
22674
32993
37478
27766
24174
32998
36877
32996
37178
33000
36576
32999
36878
27266
21175
33001
36577
27366
22675
27466
24175
33002
36578
36276
33003
36277
33004
26966
21176
33005
36278
27066
22676
27166
24176
35976
33006
35977
33007
35978
33008
26666
21177
26766
22677
26866
24177
35676
33009
35677
33010
35678
33011
26366
26466
26566
24178
22678
21178
33012
35376
33013
35377
33014
35378
35078
33017
35077
33016
35076
33015
26266
24179
26166
22679
26066
21179
34778
33020
34777
33019
34776
33018
25966
24180
25866
22680
33023
34478
25766
21180
33022
34477
34476
33021
33026
34178
25666
24181
25566
22681
33025
34177
25466
21181
33029
33878
33024
34176
33032
33578
33028
33877
25366
24182
33035
33278
25266
22682
33027
33876
33031
33577
25166
21182
33034
33277
25066
24183
33030
33576
24966
22683
33033
33276
24766
24184
24866
21183
24466
24185
24666
22684
24366
22685
24566
21184
24266
21185
28167
28267
22657
27867
28367
27967
37179
28067
27567
37180
36879
27667
27767
36880
37181
36579
36881
27267
36580
27367
27467
36581
36279
36280
26967
36281
27067
27167
35979
35980
35981
26667
26767
26867
35679
35680
35681
26367
26467
26567
35379
35380
35381
35081
35080
35079
26267
26167
26067
34781
34780
34779
25967
25867
34481
25767
34480
34479
34181
25667
25567
34180
25467
33881
34179
33581
33880
25367
25267
33879
33580
25167
25067
33579
24967
24767
24867
24667
24567
24157
22665
28467
21157
28567
22656
28667
24156
37479
22658
37480
37481
22660
22661
21165
22666
33281
33280
33279
24467
24367
24267
21156
21158
32946
32949
24158
21160
24160
21161
24161
21162
22662
22663
21163
22664
21164
24165
24166
21166
32947
21159
32950
32952
22659
32948
24159
32953
32951
32955
32954
32956
32957
32958
32959
32960
32961
32962
32963
24162
32964
32965
32966
24163
32967
32968
32969
32972
32971
32970
24164
32975
32974
32973
32978
32977
32976
32981
32980
32984
32979
32987
32983
24167
32990
22667
32982
32986
21167
32989
24168
32985
22668
32988
24169
21168
24170
22669
22670
21169
21170
28168
28268
22642
27868
28368
27968
37182
28068
27568
37183
36882
27668
27768
36883
37184
36582
36884
27268
36583
27368
27468
36584
36282
36283
26968
36284
27068
27168
35982
35983
35984
26668
26768
26868
35682
35683
35684
26368
26468
26568
35382
35383
35384
35084
35083
35082
26268
26168
26068
34784
34783
34782
25968
25868
34484
25768
34483
34482
34184
25668
25568
34183
25468
33884
34182
33584
33883
25368
25268
33882
33583
25168
25068
33582
24968
24768
24868
24668
24568
24142
22650
28468
21142
28568
22641
28668
24141
37482
22643
37483
37484
22645
22646
21150
22651
33284
33283
33282
24468
24368
24268
21141
21143
32901
32904
24143
21145
24145
21146
24146
21147
22647
22648
21148
22649
21149
24150
24151
21151
32902
21144
32905
32907
22644
32903
24144
32908
32906
32910
32909
32911
32912
32913
32914
32915
32916
32917
32918
24147
32919
32920
32921
24148
32922
32923
32924
32927
32926
32925
24149
32930
32929
32928
32933
32932
32931
32936
32935
32939
32934
32942
32938
24152
32945
22652
32937
32941
21152
32944
24153
32940
22653
32943
24154
21153
24155
22654
22655
21154
21155
28469
21126
28169
21127
28569
22626
28269
22627
28669
24126
27869
21128
28369
24127
32856
37485
27969
22628
37185
32859
28069
24128
32857
37486
27569
21129
32860
37186
32862
36885
27669
22629
32858
37487
27769
24129
32863
36886
32861
37187
32865
36585
32864
36887
27269
21130
32866
36586
27369
22630
27469
24130
32867
36587
36285
32868
36286
32869
26969
21131
32870
36287
27069
22631
27169
24131
35985
32871
35986
32872
35987
32873
26669
21132
26769
22632
26869
24132
35685
32874
35686
32875
35687
32876
26369
26469
26569
24133
22633
21133
32877
35385
32878
35386
32879
35387
35087
32882
35086
32881
35085
32880
26269
24134
26169
22634
26069
21134
34787
32885
34786
32884
34785
32883
25969
24135
25869
22635
32888
34487
25769
21135
32887
34486
34485
32886
32891
34187
25669
24136
25569
22636
32890
34186
25469
21136
32894
33887
32889
34185
32897
33587
32893
33886
25369
24137
32900
33287
25269
22637
32892
33885
32896
33586
25169
21137
32899
33286
25069
24138
32895
33585
24969
22638
32898
33285
24769
24139
24869
21138
24469
24140
24669
22639
24369
22640
24569
21139
24269
21140
28170
21112
28270
22612
27870
21113
28370
24112
27970
22613
37188
32814
28070
24113
27570
21114
32815
37189
32817
36888
27670
22614
27770
24114
32818
36889
32816
37190
32820
36588
32819
36890
27270
21115
32821
36589
27370
22615
27470
24115
32822
36590
36288
32823
36289
32824
26970
21116
32825
36290
27070
22616
27170
24116
35988
32826
35989
32827
35990
32828
26670
21117
26770
22617
26870
24117
35688
32829
35689
32830
35690
32831
26370
26470
26570
24118
22618
21118
32832
35388
32833
35389
32834
35390
35090
32837
35089
32836
35088
32835
26270
24119
26170
22619
26070
21119
34790
32840
34789
32839
34788
32838
25970
24120
25870
22620
32843
34490
25770
21120
32842
34489
34488
32841
32846
34190
25670
24121
25570
22621
32845
34189
25470
21121
32849
33890
32844
34188
32852
33590
32848
33889
25370
24122
25270
22622
32847
33888
32851
33589
25170
21122
25070
24123
32850
33588
24970
22623
24770
24124
24870
21123
24670
22624
24570
21124
28470
21111
28570
22611
28670
24111
32811
37488
32812
37489
32813
37490
32855
33290
32854
33289
32853
33288
24470
24125
24370
22625
24270
21125
28171
28271
27871
28371
27971
37191
28071
27571
37192
36891
27671
27771
36892
37193
36591
36893
27271
36592
27371
27471
36593
36291
36292
26971
36293
27071
27171
35991
35992
35993
26671
26771
26871
35691
35692
35693
26371
26471
26571
35391
35392
35393
35093
35092
35091
26271
26171
26071
34793
34792
34791
25971
25871
34493
25771
34492
34491
34193
25671
25571
34192
25471
33893
34191
33593
33892
25371
25271
33891
33592
25171
25071
33591
24971
24771
24871
24671
24571
28471
28571
28671
24471
24371
24271
21097
22597
21098
24097
37491
22598
32769
24098
37492
21099
32770
32772
22599
37493
24099
32773
32771
32775
32774
21100
32776
22600
24100
32777
32778
32779
21101
32780
22601
24101
32781
32782
32783
21102
22602
24102
32784
32785
32786
24103
22603
21103
32787
32788
32789
32792
32791
32790
24104
22604
21104
32795
32794
32793
24105
22605
32798
21105
32797
32796
32801
24106
22606
32800
21106
32804
32799
32807
32803
24107
33293
22607
32802
32806
21107
33292
24108
32805
22608
33291
24109
21108
22609
21109
21096
22596
24096
32766
32767
32768
32810
32809
32808
24110
22610
21110
28172
28272
27872
28372
27972
37194
28072
27572
37195
36894
27672
27772
36895
37196
36594
36896
27272
36595
27372
27472
36596
36294
36295
26972
36296
27072
27172
35994
35995
35996
26672
26772
26872
35694
35695
35696
26372
26472
26572
35394
35395
35396
35096
35095
35094
26272
26172
26072
34796
34795
34794
25972
25872
34496
25772
34495
34494
34196
25672
25572
34195
25472
33896
34194
33596
33895
25372
25272
33894
33595
25172
25072
33594
24972
24772
24872
24672
24572
28472
21082
28572
22582
28672
21083
24082
37494
22583
32724
24083
37495
21084
32725
32727
22584
37496
24084
32728
32726
32730
32729
21085
32731
22585
24085
32732
32733
32734
21086
32735
22586
24086
32736
32737
32738
21087
22587
24087
32739
32740
32741
24088
22588
21088
32742
32743
32744
32747
32746
32745
24089
22589
21089
32750
32749
32748
24090
22590
32753
21090
32752
32751
32756
24091
22591
32755
21091
32759
32754
32762
32758
24092
33296
22592
32757
32761
21092
33295
24093
32760
22593
33294
24094
21093
24472
22594
24372
21094
24272
21081
22581
24081
32721
32722
32723
32765
32764
32763
24095
22595
21095
28173
21067
28273
22567
27873
21068
28373
24067
27973
22568
37197
32679
28073
24068
27573
21069
32680
37198
32682
36897
27673
22569
27773
24069
32683
36898
32681
37199
32685
36597
32684
36899
27273
21070
32686
36598
27373
22570
27473
24070
32687
36599
36297
32688
36298
32689
26973
21071
32690
36299
27073
22571
27173
24071
35997
32691
35998
32692
35999
32693
26673
21072
26773
22572
26873
24072
32694
35697
32695
35698
32696
35699
26373
26473
26573
24073
22573
21073
32697
35397
32698
35398
32699
35399
35099
32702
35098
32701
35097
32700
26273
24074
26173
22574
26073
21074
34799
32705
34798
32704
34797
32703
25973
24075
25873
22575
32708
34499
25773
21075
32707
34498
34497
32706
32711
34199
25673
24076
25573
22576
32710
34198
25473
21076
32714
33899
32709
34197
32717
33599
32713
33898
25373
24077
25273
22577
32712
33897
32716
33598
25173
21077
25073
24078
32715
33597
24973
22578
24773
24079
24873
21078
24673
22579
24573
21079
28473
21066
28573
22566
28673
24066
32676
37497
32677
37498
32678
37499
32720
33299
32719
33298
32718
33297
24473
24080
24373
22580
24273
21080
28174
21052
28274
22552
27874
21053
28374
24052
27974
22553
37200
32634
28074
24053
27574
21054
32635
37201
32637
36900
27674
22554
27774
24054
32638
36901
32636
37202
32640
36600
32639
36902
27274
21055
32641
36601
27374
22555
27474
24055
32642
36602
36300
32643
36301
32644
26974
21056
32645
36302
27074
22556
27174
24056
36000
32646
36001
32647
36002
32648
26674
21057
26774
22557
26874
24057
32649
35700
32650
35701
32651
35702
26374
26474
26574
24058
22558
21058
32652
35400
32653
35401
32654
35402
35102
32657
35101
32656
35100
32655
26274
24059
26174
22559
26074
21059
34802
32660
34801
32659
34800
32658
25974
24060
25874
22560
32663
34502
25774
21060
32662
34501
34500
32661
32666
34202
25674
24061
25574
22561
32665
34201
25474
21061
32669
33902
32664
34200
32672
33602
32668
33901
25374
24062
25274
22562
32667
33900
32671
33601
25174
21062
25074
24063
32670
33600
24974
22563
24774
24064
24874
21063
24674
22564
24574
21064
28474
21051
28574
22551
28674
24051
32631
37500
32632
37501
32633
37502
32675
33302
32674
33301
32673
33300
24474
24065
24374
22565
24274
21065
28175
21037
28275
22537
27875
21038
28375
24037
27975
22538
37203
32589
28075
24038
27575
21039
32590
37204
32592
36903
27675
22539
27775
24039
32593
36904
32591
37205
32595
36603
32594
36905
27275
21040
32596
36604
27375
22540
27475
24040
32597
36605
36303
32598
36304
32599
26975
21041
32600
36305
27075
22541
27175
24041
36003
32601
36004
32602
36005
32603
26675
21042
26775
22542
26875
24042
32604
35703
32605
35704
32606
35705
26375
26475
26575
24043
22543
21043
32607
35403
32608
35404
32609
35405
35105
32612
35104
32611
35103
32610
26275
24044
26175
22544
26075
21044
34805
32615
34804
32614
34803
32613
25975
24045
25875
22545
32618
34505
25775
21045
32617
34504
34503
32616
32621
34205
25675
24046
25575
22546
32620
34204
25475
21046
32624
33905
32619
34203
32627
33605
32623
33904
25375
24047
25275
22547
32622
33903
32626
33604
25175
21047
25075
24048
32625
33603
24975
22548
24775
24049
24875
21048
24675
22549
24575
21049
28475
21036
28575
22536
28675
24036
32586
37503
32587
37504
32588
37505
32630
33305
32629
33304
32628
33303
24475
24050
24375
22550
24275
21050
28176
28276
27876
28376
27976
37206
28076
27576
37207
36906
27676
27776
36907
37208
36606
36908
27276
36607
27376
27476
36608
36306
36307
26976
36308
27076
27176
36006
36007
36008
26676
26776
26876
35706
35707
35708
26376
26476
26576
35406
35407
35408
35108
35107
35106
26276
26176
26076
34808
34807
34806
25976
25876
34508
25776
34507
34506
34208
25676
25576
34207
25476
33908
34206
33608
33907
25376
25276
33906
33607
25176
25076
33606
24976
24776
24876
24676
24576
28476
21022
28576
22522
28676
21023
24022
37506
22523
32544
24023
37507
21024
32545
32547
22524
37508
24024
32548
32546
32550
32549
21025
32551
22525
24025
32552
32553
32554
21026
32555
22526
24026
32556
32557
32558
21027
22527
24027
32559
32560
32561
24028
22528
21028
32562
32563
32564
32567
32566
32565
24029
22529
21029
32570
32569
32568
24030
22530
32573
21030
32572
32571
32576
24031
22531
32575
21031
32579
32574
32582
32578
24032
33308
22532
32577
32581
21032
33307
24033
32580
22533
33306
24034
21033
24476
22534
24376
21034
24276
21021
22521
24021
32541
32542
32543
32585
32584
32583
24035
22535
21035
28177
28277
27877
28377
27977
37209
28077
27577
37210
36909
27677
27777
36910
37211
36609
36911
27277
36610
27377
27477
36611
36309
36310
26977
36311
27077
27177
36009
36010
36011
26677
26777
26877
35709
35710
35711
26377
26477
26577
35409
35410
35411
35111
35110
35109
26277
26177
26077
34811
34810
34809
25977
25877
34511
25777
34510
34509
34211
25677
25577
34210
25477
33911
34209
33611
33910
25377
25277
33909
33610
25177
25077
33609
24977
24777
24877
24677
24577
28477
21007
28577
22507
28677
21008
24007
37509
22508
32499
24008
37510
21009
32500
32502
22509
37511
24009
32503
32501
32505
32504
21010
32506
22510
24010
32507
32508
32509
21011
32510
22511
24011
32511
32512
32513
21012
22512
24012
32514
32515
32516
24013
22513
21013
32517
32518
32519
32522
32521
32520
24014
22514
21014
32525
32524
32523
24015
22515
32528
21015
32527
32526
32531
24016
22516
32530
21016
32534
32529
32537
32533
24017
33311
22517
32532
32536
21017
33310
24018
32535
22518
33309
24019
21018
24477
22519
24377
21019
24277
21006
22506
24006
32496
32497
32498
32540
32539
32538
24020
22520
21020
28478
20991
28178
20992
28578
22491
28278
22492
28678
23991
27878
20993
28378
23992
32451
37512
27978
22493
37212
32454
28078
23993
32452
37513
27578
20994
32455
37213
32457
36912
27678
22494
32453
37514
27778
23994
32458
36913
32456
37214
32460
36612
32459
36914
27278
20995
32461
36613
27378
22495
27478
23995
32462
36614
36312
32463
36313
32464
26978
20996
32465
36314
27078
22496
27178
23996
36012
32466
36013
32467
36014
32468
26678
20997
26778
22497
26878
23997
32469
35712
32470
35713
32471
35714
26378
26478
26578
23998
22498
20998
32472
35412
32473
35413
32474
35414
35114
32477
35113
32476
35112
32475
26278
23999
26178
22499
26078
20999
34814
32480
34813
32479
34812
32478
25978
24000
25878
22500
32483
34514
25778
21000
32482
34513
34512
32481
32486
34214
25678
24001
25578
22501
32485
34213
25478
21001
32489
33914
32484
34212
32492
33614
32488
33913
25378
24002
32495
33314
25278
22502
32487
33912
32491
33613
25178
21002
32494
33313
25078
24003
32490
33612
24978
22503
32493
33312
24778
24004
24878
21003
24478
24005